 Gaussian 09, Revision D.01,
 Gaussian 09:  ES64L-G09RevD.01 24-Apr-2013

 --------------------------------------------
 #P MP2 6-31G** Freq=HPModes pop=full gfinput
 --------------------------------------------

 (Enter /mnt/software/gaussian/g09/l101.exe)

 Symbolic Z-matrix:
 Charge =  0 Multiplicity = 1

                         Standard orientation:
 ---------------------------------------------------------------------
 Center     Atomic      Atomic             Coordinates (Angstroms)
 Number     Number       Type             X           Y           Z
 ---------------------------------------------------------------------
      1          6           0       -1.188975   -0.601978    0.000000
      2          6           0       -0.000471   -1.332644    0.000000
      3          7           0       -1.207426    0.742645    0.000000
      4          7           0        1.207699   -0.742073    0.000000
      5          6           0        1.189126    0.601370    0.000000
      6          6           0        0.000000    1.332502    0.000000
      7          1           0        2.149450    1.103213    0.000000
      8          1           0        0.014060    2.415945    0.000000
      9          1           0       -0.013656   -2.415984    0.000000
     10          1           0       -2.149842   -1.102681    0.000000
 ---------------------------------------------------------------------

 SCF Done:  E(RHF) =  -262.686529813     A.U. after   12 cycles
 E2 =    -0.8481390659D+00 EUMP2 =    -0.26353466887920D+03
 E2 =    -0.8481390659D+00 EUMP2 =    -0.26353466887920D+03

 The electronic state is 1-A'.
 Alpha  occ. eigenvalues --  -15.59938 -15.59936 -11.28722 -11.28714 -11.28604
 Alpha  occ. eigenvalues --  -11.28596  -1.30127  -1.21401  -1.05101  -0.90024
 Alpha  occ. eigenvalues --   -0.88365  -0.72299  -0.69758  -0.67596  -0.60835
 Alpha  occ. eigenvalues --   -0.56781  -0.54695  -0.49638  -0.42899  -0.40984
 Alpha  occ. eigenvalues --   -0.35705
 Alpha virt. eigenvalues --    0.09159   0.12552   0.25597   0.27779   0.30233
 Alpha virt. eigenvalues --    0.31505   0.33470   0.34518   0.46641   0.49272
 Alpha virt. eigenvalues --    0.49891   0.61237   0.68371   0.70860   0.72224

 Mulliken charges:
               1
     1  C    0.074118
     2  C    0.074120
     3  N   -0.482200
     4  N   -0.482205
     5  C    0.074554
     6  C    0.074434
     7  H    0.166747
     8  H    0.166762
     9  H    0.166836
    10  H    0.166834
 Sum of Mulliken charges =   0.00000

 Dipole moment (field-independent basis, Debye):
    X=              0.0014    Y=              0.0021    Z=              0.0000  Tot=              0.0025
 Quadrupole moment (field-independent basis, Debye-Ang):
   XX=            -37.2493   YY=            -30.2652   ZZ=            -36.3004
   XY=              6.9032   XZ=              0.0000   YZ=              0.0000

  Exact polarizability:  56.491   5.254  61.804   0.000   0.000  20.337
 Approx polarizability:  58.892   2.212  61.130   0.000   0.000  23.130

                      1                      2                      3
                     A"                     A"                     A'
 Frequencies --    342.9771               422.8049               603.6798
 Red. masses --      2.3816                 7.5118                 8.7661
 Frc consts  --      0.1651                 0.7912                 1.8822
 IR Inten    --      0.0000                23.6777                 0.0000

                      4                      5                      6
                     A'                     A"                     A"
 Frequencies --    716.9858               742.3766               805.8905
 Red. masses --      6.9449                 6.4382                 1.1250
 Frc consts  --      2.1035                 2.0906                 0.4305
 IR Inten    --      0.0000                 0.0000                22.6849

                      7                      8                      9
                     A"                     A"                     A"
 Frequencies --    949.5231               958.8571               969.4864
 Red. masses --      1.2586                 1.1777                 1.5250
 Frc consts  --      0.6686                 0.6380                 0.8445
 IR Inten    --      0.0000                 0.0000                 0.0000

                     10                     11                     12
                     A'                     A'                     A'
 Frequencies --   1039.2856              1040.6610              1109.6041
 Red. masses --      5.6282                 5.7967                 1.8706
 Frc consts  --      3.5817                 3.6987                 1.3570
 IR Inten    --     36.1610                 0.0470                12.5083

                     13                     14                     15
                     A'                     A'                     A'
 Frequencies --   1174.2207              1276.6318              1363.9980
 Red. masses --      2.1439                 1.2293                 7.4641
 Frc consts  --      1.7416                 1.1804                 8.1819
 IR Inten    --      2.7627                 0.0000                 0.0670

                     16                     17                     18
                     A'                     A'                     A'
 Frequencies --   1394.2336              1470.6845              1533.2788
 Red. masses --      1.2248                 1.9372                 1.8649
 Frc consts  --      1.4028                 2.4687                 2.5832
 IR Inten    --      0.0002                31.3671                 2.7918

                     19                     20                     21
                     A'                     A'                     A'
 Frequencies --   1589.9775              1642.9890              3251.4864
 Red. masses --      7.5278                 4.6753                 1.0870
 Frc consts  --     11.2124                 7.4359                 6.7709
 IR Inten    --      0.0005                 0.0015                 1.1697

                     22                     23                     24
                     A'                     A'                     A'
 Frequencies --   3252.6249              3266.8436              3272.0372
 Red. masses --      1.0896                 1.0955                 1.1006
 Frc consts  --      6.7920                 6.8882                 6.9423
 IR Inten    --      5.3539                52.1223                 0.4077

 - Thermochemistry -
 -------------------
 Temperature   298.150 Kelvin.  Pressure   1.00000 Atm.
 Atom     1 has atomic number  6 and mass  12.00000

 Molecular mass:    80.03745 amu.
 Principal axes and moments of inertia in atomic units:
                           1         2         3
     Eigenvalues --   282.34816 307.03147 589.37963
           X            0.85222   0.52318   0.00000
           Y           -0.52318   0.85222   0.00000
           Z            0.00000   0.00000   1.00000
 This molecule is an asymmetric top.
 Rotational symmetry number  1.
 Rotational temperatures (Kelvin)      0.30676     0.28210     0.14696
 Rotational constants (GHZ):           6.39190     5.87803     3.06210
 Zero-point vibrational energy     204508.4 (Joules/Mol)
                                   48.87869 (Kcal/Mol)
 Warning -- explicit consideration of   3 degrees of freedom as
           vibrations may cause significant error
 Vibrational temperatures:    493.47   608.32   868.56  1031.58  1068.11
          (Kelvin)           1159.50  1366.15  1379.58  1394.87  1495.30
                             1497.28  1596.47  1689.44  1836.79  1962.49
                             2005.99  2115.98  2206.04  2287.62  2363.89
                             4678.16  4679.80  4700.25  4707.73

 Zero-point correction=                           0.077893 (Hartree/Particle)
 Thermal correction to Energy=                    0.082100
 Thermal correction to Enthalpy=                  0.083044
 Thermal correction to Gibbs Free Energy=         0.050512
 Sum of electronic and zero-point Energies=           -263.456776
 Sum of electronic and thermal Energies=              -263.452569
 Sum of electronic and thermal Enthalpies=            -263.451625
 Sum of electronic and thermal Free Energies=         -263.484157

                     E (Thermal)             CV                S
                      KCal/Mol        Cal/Mol-Kelvin    Cal/Mol-Kelvin
 Total                   51.518             15.258             68.469
 Electronic               0.000              0.000              0.000
 Translational            0.889              2.981             39.054
 Rotational               0.889              2.981             25.439
 Vibrational             49.741              9.297              3.976
 Vibration     1          0.722              1.590              1.198
 Vibration     2          0.785              1.421              0.882
 Vibration     3          0.962              1.024              0.443

 Normal termination of Gaussian 09 at Mon Jan  9 11:30:12 2017.
